<?xml version="1.0" encoding="UTF-8"?>

<!-- generated on 2025-04-10 11:30:20 by Eclipse SUMO sumo Version 1.21.0
<sumoConfiguration xmlns:xsi="http://www.w3.org/2001/XMLSchema-instance" xsi:noNamespaceSchemaLocation="http://sumo.dlr.de/xsd/sumoConfiguration.xsd">

    <input>
        <net-file value="C:\Users\skyle\OneDrive\Desktop\SkylerTrafficControlSystem\simulation_files\network.net.xml"/>
        <route-files value="C:\Users\skyle\OneDrive\Desktop\SkylerTrafficControlSystem\simulation_files\routes.rou.xml"/>
        <additional-files value="C:\Users\skyle\OneDrive\Desktop\SkylerTrafficControlSystem\simulation_files\detectors.add.xml"/>
    </input>

    <output>
        <fcd-output value="C:\Users\skyle\OneDrive\Desktop\SkylerTrafficControlSystem\simulation_files\output_simulated_files/fcd.xml"/>
        <summary-output value="C:\Users\skyle\OneDrive\Desktop\SkylerTrafficControlSystem\simulation_files\output_simulated_files/summary.xml"/>
        <tripinfo-output value="tripinfo.xml"/>
    </output>

    <time>
        <begin value="0"/>
        <end value="5000"/>
        <step-length value="0.5"/>
    </time>

    <processing>
        <scale value="1"/>
    </processing>

    <traci_server>
        <remote-port value="60937"/>
    </traci_server>

    <gui_only>
        <delay value="1000"/>
    </gui_only>

</sumoConfiguration>
-->

<tripinfos xmlns:xsi="http://www.w3.org/2001/XMLSchema-instance" xsi:noNamespaceSchemaLocation="http://sumo.dlr.de/xsd/tripinfo_file.xsd">
    <tripinfo id="east_north_flow.0" depart="0.00" departLane="east_edge_0_0" departPos="5.10" departSpeed="0.00" departDelay="0.00" arrival="33.00" arrivalLane="north_edge_7_0" arrivalPos="19.59" arrivalSpeed="11.57" duration="33.00" routeLength="373.02" waitingTime="0.00" waitingCount="0" stopTime="0.00" timeLoss="5.15" rerouteNo="0" devices="tripinfo_east_north_flow.0 fcd_east_north_flow.0" vType="car" speedFactor="1.06" vaporized=""/>
    <tripinfo id="south_north_flow.0" depart="2.50" departLane="south_edge_0_0" departPos="5.10" departSpeed="0.00" departDelay="2.50" arrival="45.00" arrivalLane="south_edge_8_0" arrivalPos="37.83" arrivalSpeed="12.82" duration="42.50" routeLength="402.34" waitingTime="0.00" waitingCount="0" stopTime="0.00" timeLoss="6.09" rerouteNo="0" devices="tripinfo_south_north_flow.0 fcd_south_north_flow.0" vType="car" speedFactor="0.94" vaporized=""/>
    <tripinfo id="south_east_flow.0" depart="0.00" departLane="south_edge_0_0" departPos="5.10" departSpeed="0.00" departDelay="0.00" arrival="55.00" arrivalLane="east_edge_15_0" arrivalPos="55.26" arrivalSpeed="12.27" duration="55.00" routeLength="539.13" waitingTime="0.00" waitingCount="0" stopTime="0.00" timeLoss="7.80" rerouteNo="0" devices="tripinfo_south_east_flow.0 fcd_south_east_flow.0" vType="car" speedFactor="0.89" vaporized=""/>
    <tripinfo id="east_south_flow.0" depart="2.50" departLane="east_edge_0_0" departPos="5.10" departSpeed="0.00" departDelay="2.50" arrival="57.00" arrivalLane="south_edge_8_0" arrivalPos="37.83" arrivalSpeed="12.79" duration="54.50" routeLength="556.01" waitingTime="0.00" waitingCount="0" stopTime="0.00" timeLoss="7.53" rerouteNo="0" devices="tripinfo_east_south_flow.0 fcd_east_south_flow.0" vType="car" speedFactor="0.94" vaporized=""/>
    <tripinfo id="north_south_flow.0" depart="5.50" departLane="north_edge_0_0" departPos="5.10" departSpeed="0.00" departDelay="5.50" arrival="59.00" arrivalLane="north_edge_7_0" arrivalPos="19.59" arrivalSpeed="9.14" duration="53.50" routeLength="407.26" waitingTime="0.00" waitingCount="0" stopTime="0.00" timeLoss="11.58" rerouteNo="0" devices="tripinfo_north_south_flow.0 fcd_north_south_flow.0" vType="car" speedFactor="0.83" vaporized=""/>
    <tripinfo id="south_west_flow.0" depart="5.00" departLane="south_edge_0_0" departPos="5.10" departSpeed="0.00" departDelay="5.00" arrival="66.00" arrivalLane="west_edge_15_0" arrivalPos="45.96" arrivalSpeed="11.78" duration="61.00" routeLength="369.09" waitingTime="20.50" waitingCount="1" stopTime="0.00" timeLoss="27.11" rerouteNo="0" devices="tripinfo_south_west_flow.0 fcd_south_west_flow.0" vType="car" speedFactor="0.86" vaporized=""/>
    <tripinfo id="north_east1_flow.0" depart="0.00" departLane="north_edge_0_0" departPos="5.10" departSpeed="0.00" departDelay="0.00" arrival="67.00" arrivalLane="east_edge_15_0" arrivalPos="55.26" arrivalSpeed="14.65" duration="67.00" routeLength="642.65" waitingTime="10.50" waitingCount="1" stopTime="0.00" timeLoss="20.46" rerouteNo="0" devices="tripinfo_north_east1_flow.0 fcd_north_east1_flow.0" vType="car" speedFactor="1.08" vaporized=""/>
    <tripinfo id="east_west_flow.0" depart="5.00" departLane="east_edge_0_0" departPos="5.10" departSpeed="0.00" departDelay="5.00" arrival="71.50" arrivalLane="east_edge_15_0" arrivalPos="55.26" arrivalSpeed="13.65" duration="66.50" routeLength="697.97" waitingTime="2.00" waitingCount="1" stopTime="0.00" timeLoss="16.03" rerouteNo="0" devices="tripinfo_east_west_flow.0 fcd_east_west_flow.0" vType="car" speedFactor="1.01" vaporized=""/>
    <tripinfo id="west_north_flow.0" depart="3.00" departLane="west_edge_1_0" departPos="5.10" departSpeed="0.00" departDelay="3.00" arrival="74.50" arrivalLane="north_edge_7_0" arrivalPos="19.59" arrivalSpeed="11.14" duration="71.50" routeLength="534.40" waitingTime="15.00" waitingCount="1" stopTime="0.00" timeLoss="30.45" rerouteNo="0" devices="tripinfo_west_north_flow.0 fcd_west_north_flow.0" vType="car" speedFactor="1.03" vaporized=""/>
    <tripinfo id="north_west_flow.0" depart="8.00" departLane="north_edge_0_0" departPos="5.10" departSpeed="0.00" departDelay="8.00" arrival="77.50" arrivalLane="west_edge_15_0" arrivalPos="45.96" arrivalSpeed="13.95" duration="69.50" routeLength="567.33" waitingTime="5.50" waitingCount="1" stopTime="0.00" timeLoss="26.30" rerouteNo="0" devices="tripinfo_north_west_flow.0 fcd_north_west_flow.0" vType="car" speedFactor="1.05" vaporized=""/>
    <tripinfo id="north_east2_flow.0" depart="2.50" departLane="north_edge_0_0" departPos="5.10" departSpeed="0.00" departDelay="2.50" arrival="81.50" arrivalLane="east_edge_15_0" arrivalPos="55.26" arrivalSpeed="14.11" duration="79.00" routeLength="725.55" waitingTime="5.50" waitingCount="1" stopTime="0.00" timeLoss="23.38" rerouteNo="0" devices="tripinfo_north_east2_flow.0 fcd_north_east2_flow.0" vType="car" speedFactor="1.03" vaporized=""/>
    <tripinfo id="west_east_flow.0" depart="0.00" departLane="west_edge_1_0" departPos="5.10" departSpeed="0.00" departDelay="0.00" arrival="82.50" arrivalLane="west_edge_15_0" arrivalPos="45.96" arrivalSpeed="14.69" duration="82.50" routeLength="699.56" waitingTime="20.50" waitingCount="1" stopTime="0.00" timeLoss="34.89" rerouteNo="0" devices="tripinfo_west_east_flow.0 fcd_west_east_flow.0" vType="car" speedFactor="1.09" vaporized=""/>
    <tripinfo id="east_south_flow.1" depart="30.00" departLane="east_edge_0_0" departPos="5.10" departSpeed="0.00" departDelay="0.00" arrival="88.00" arrivalLane="south_edge_8_0" arrivalPos="37.83" arrivalSpeed="15.47" duration="58.00" routeLength="556.01" waitingTime="6.50" waitingCount="1" stopTime="0.00" timeLoss="18.60" rerouteNo="0" devices="tripinfo_east_south_flow.1 fcd_east_south_flow.1" vType="car" speedFactor="1.12" vaporized=""/>
    <tripinfo id="west_south_flow.0" depart="5.50" departLane="west_edge_1_0" departPos="5.10" departSpeed="0.00" departDelay="5.50" arrival="95.50" arrivalLane="south_edge_8_0" arrivalPos="37.83" arrivalSpeed="14.00" duration="90.00" routeLength="726.32" waitingTime="18.00" waitingCount="1" stopTime="0.00" timeLoss="35.20" rerouteNo="0" devices="tripinfo_west_south_flow.0 fcd_west_south_flow.0" vType="car" speedFactor="1.05" vaporized=""/>
    <tripinfo id="south_east_flow.1" depart="30.00" departLane="south_edge_0_0" departPos="5.10" departSpeed="0.00" departDelay="0.00" arrival="97.00" arrivalLane="east_edge_15_0" arrivalPos="55.26" arrivalSpeed="12.83" duration="67.00" routeLength="539.13" waitingTime="10.00" waitingCount="1" stopTime="0.00" timeLoss="22.19" rerouteNo="0" devices="tripinfo_south_east_flow.1 fcd_south_east_flow.1" vType="car" speedFactor="0.94" vaporized=""/>
    <tripinfo id="north_south_flow.1" depart="36.00" departLane="north_edge_0_0" departPos="5.10" departSpeed="0.00" departDelay="6.00" arrival="98.50" arrivalLane="north_edge_7_0" arrivalPos="19.59" arrivalSpeed="9.64" duration="62.50" routeLength="407.26" waitingTime="10.00" waitingCount="1" stopTime="0.00" timeLoss="22.84" rerouteNo="0" devices="tripinfo_north_south_flow.1 fcd_north_south_flow.1" vType="car" speedFactor="0.88" vaporized=""/>
    <tripinfo id="west_south_flow.1" depart="30.00" departLane="west_edge_1_0" departPos="5.10" departSpeed="0.00" departDelay="0.00" arrival="99.50" arrivalLane="south_edge_8_0" arrivalPos="37.83" arrivalSpeed="13.73" duration="69.50" routeLength="726.32" waitingTime="0.00" waitingCount="0" stopTime="0.00" timeLoss="12.59" rerouteNo="0" devices="tripinfo_west_south_flow.1 fcd_west_south_flow.1" vType="car" speedFactor="1.01" vaporized=""/>
    <tripinfo id="south_west_flow.1" depart="35.00" departLane="south_edge_0_0" departPos="5.10" departSpeed="0.00" departDelay="5.00" arrival="105.00" arrivalLane="west_edge_15_0" arrivalPos="45.96" arrivalSpeed="14.11" duration="70.00" routeLength="369.09" waitingTime="25.50" waitingCount="2" stopTime="0.00" timeLoss="41.10" rerouteNo="0" devices="tripinfo_south_west_flow.1 fcd_south_west_flow.1" vType="car" speedFactor="1.02" vaporized=""/>
    <tripinfo id="north_east1_flow.1" depart="30.00" departLane="north_edge_0_0" departPos="5.10" departSpeed="0.00" departDelay="0.00" arrival="109.00" arrivalLane="east_edge_15_0" arrivalPos="55.26" arrivalSpeed="13.49" duration="79.00" routeLength="642.65" waitingTime="18.00" waitingCount="1" stopTime="0.00" timeLoss="28.29" rerouteNo="0" devices="tripinfo_north_east1_flow.1 fcd_north_east1_flow.1" vType="car" speedFactor="0.99" vaporized=""/>
    <tripinfo id="south_north_flow.1" depart="32.50" departLane="south_edge_0_0" departPos="5.10" departSpeed="0.00" departDelay="2.50" arrival="109.00" arrivalLane="south_edge_8_0" arrivalPos="37.83" arrivalSpeed="15.50" duration="76.50" routeLength="402.34" waitingTime="29.50" waitingCount="2" stopTime="0.00" timeLoss="46.75" rerouteNo="0" devices="tripinfo_south_north_flow.1 fcd_south_north_flow.1" vType="car" speedFactor="1.16" vaporized=""/>
    <tripinfo id="west_north_flow.1" depart="62.50" departLane="west_edge_1_0" departPos="5.10" departSpeed="0.00" departDelay="2.50" arrival="113.00" arrivalLane="north_edge_7_0" arrivalPos="19.59" arrivalSpeed="12.56" duration="50.50" routeLength="534.40" waitingTime="0.00" waitingCount="0" stopTime="0.00" timeLoss="13.95" rerouteNo="0" devices="tripinfo_west_north_flow.1 fcd_west_north_flow.1" vType="car" speedFactor="1.17" vaporized=""/>
    <tripinfo id="north_west_flow.1" depart="39.00" departLane="north_edge_0_0" departPos="5.10" departSpeed="0.00" departDelay="9.00" arrival="118.50" arrivalLane="west_edge_15_0" arrivalPos="45.96" arrivalSpeed="12.85" duration="79.50" routeLength="567.33" waitingTime="13.50" waitingCount="2" stopTime="0.00" timeLoss="31.55" rerouteNo="0" devices="tripinfo_north_west_flow.1 fcd_north_west_flow.1" vType="car" speedFactor="0.94" vaporized=""/>
    <tripinfo id="east_north_flow.1" depart="60.00" departLane="east_edge_0_0" departPos="5.10" departSpeed="0.00" departDelay="0.00" arrival="119.50" arrivalLane="north_edge_7_0" arrivalPos="19.59" arrivalSpeed="10.45" duration="59.50" routeLength="373.02" waitingTime="20.00" waitingCount="2" stopTime="0.00" timeLoss="29.23" rerouteNo="0" devices="tripinfo_east_north_flow.1 fcd_east_north_flow.1" vType="car" speedFactor="0.97" vaporized=""/>
    <tripinfo id="west_east_flow.1" depart="60.00" departLane="west_edge_1_0" departPos="5.10" departSpeed="0.00" departDelay="0.00" arrival="123.00" arrivalLane="west_edge_15_0" arrivalPos="45.96" arrivalSpeed="13.38" duration="63.00" routeLength="699.56" waitingTime="0.00" waitingCount="0" stopTime="0.00" timeLoss="11.77" rerouteNo="0" devices="tripinfo_west_east_flow.1 fcd_west_east_flow.1" vType="car" speedFactor="1.01" vaporized=""/>
    <tripinfo id="north_east2_flow.1" depart="33.00" departLane="north_edge_0_0" departPos="5.10" departSpeed="0.00" departDelay="3.00" arrival="124.50" arrivalLane="east_edge_15_0" arrivalPos="55.26" arrivalSpeed="12.30" duration="91.50" routeLength="725.55" waitingTime="13.00" waitingCount="1" stopTime="0.00" timeLoss="29.94" rerouteNo="0" devices="tripinfo_north_east2_flow.1 fcd_north_east2_flow.1" vType="car" speedFactor="0.93" vaporized=""/>
    <tripinfo id="south_east_flow.2" depart="60.00" departLane="south_edge_0_0" departPos="5.10" departSpeed="0.00" departDelay="0.00" arrival="135.50" arrivalLane="east_edge_15_0" arrivalPos="55.26" arrivalSpeed="12.71" duration="75.50" routeLength="539.13" waitingTime="13.50" waitingCount="2" stopTime="0.00" timeLoss="30.43" rerouteNo="0" devices="tripinfo_south_east_flow.2 fcd_south_east_flow.2" vType="car" speedFactor="0.93" vaporized=""/>
    <tripinfo id="west_south_flow.2" depart="65.00" departLane="west_edge_1_0" departPos="5.10" departSpeed="0.00" departDelay="5.00" arrival="135.50" arrivalLane="south_edge_8_0" arrivalPos="37.83" arrivalSpeed="13.41" duration="70.50" routeLength="726.32" waitingTime="0.00" waitingCount="0" stopTime="0.00" timeLoss="12.65" rerouteNo="0" devices="tripinfo_west_south_flow.2 fcd_west_south_flow.2" vType="car" speedFactor="0.99" vaporized=""/>
    <tripinfo id="north_south_flow.2" depart="65.00" departLane="north_edge_0_0" departPos="5.10" departSpeed="0.00" departDelay="5.00" arrival="138.00" arrivalLane="north_edge_7_0" arrivalPos="19.59" arrivalSpeed="10.31" duration="73.00" routeLength="407.26" waitingTime="20.00" waitingCount="1" stopTime="0.00" timeLoss="36.18" rerouteNo="0" devices="tripinfo_north_south_flow.2 fcd_north_south_flow.2" vType="car" speedFactor="0.95" vaporized=""/>
    <tripinfo id="east_south_flow.2" depart="62.50" departLane="east_edge_0_0" departPos="5.10" departSpeed="0.00" departDelay="2.50" arrival="141.00" arrivalLane="south_edge_8_0" arrivalPos="37.83" arrivalSpeed="12.10" duration="78.50" routeLength="556.01" waitingTime="12.00" waitingCount="2" stopTime="0.00" timeLoss="28.83" rerouteNo="0" devices="tripinfo_east_south_flow.2 fcd_east_south_flow.2" vType="car" speedFactor="0.89" vaporized=""/>
    <tripinfo id="south_west_flow.2" depart="65.00" departLane="south_edge_0_0" departPos="5.10" departSpeed="0.00" departDelay="5.00" arrival="143.00" arrivalLane="west_edge_15_0" arrivalPos="45.96" arrivalSpeed="15.91" duration="78.00" routeLength="369.09" waitingTime="28.00" waitingCount="3" stopTime="0.00" timeLoss="52.40" rerouteNo="0" devices="tripinfo_south_west_flow.2 fcd_south_west_flow.2" vType="car" speedFactor="1.15" vaporized=""/>
    <tripinfo id="east_south_flow.3" depart="90.00" departLane="east_edge_0_0" departPos="5.10" departSpeed="0.00" departDelay="0.00" arrival="143.50" arrivalLane="south_edge_8_0" arrivalPos="37.83" arrivalSpeed="14.12" duration="53.50" routeLength="556.01" waitingTime="0.00" waitingCount="0" stopTime="0.00" timeLoss="10.16" rerouteNo="0" devices="tripinfo_east_south_flow.3 fcd_east_south_flow.3" vType="car" speedFactor="1.02" vaporized=""/>
    <tripinfo id="south_north_flow.2" depart="62.50" departLane="south_edge_0_0" departPos="5.10" departSpeed="0.00" departDelay="2.50" arrival="147.50" arrivalLane="south_edge_8_0" arrivalPos="37.83" arrivalSpeed="15.99" duration="85.00" routeLength="402.34" waitingTime="33.00" waitingCount="3" stopTime="0.00" timeLoss="55.84" rerouteNo="0" devices="tripinfo_south_north_flow.2 fcd_south_north_flow.2" vType="car" speedFactor="1.18" vaporized=""/>
    <tripinfo id="north_east1_flow.2" depart="60.00" departLane="north_edge_0_0" departPos="5.10" departSpeed="0.00" departDelay="0.00" arrival="153.00" arrivalLane="east_edge_15_0" arrivalPos="55.26" arrivalSpeed="11.67" duration="93.00" routeLength="642.65" waitingTime="23.00" waitingCount="1" stopTime="0.00" timeLoss="35.01" rerouteNo="0" devices="tripinfo_north_east1_flow.2 fcd_north_east1_flow.2" vType="car" speedFactor="0.87" vaporized=""/>
    <tripinfo id="north_west_flow.2" depart="67.50" departLane="north_edge_0_0" departPos="5.10" departSpeed="0.00" departDelay="7.50" arrival="153.00" arrivalLane="west_edge_15_0" arrivalPos="45.96" arrivalSpeed="15.35" duration="85.50" routeLength="567.33" waitingTime="21.00" waitingCount="2" stopTime="0.00" timeLoss="45.35" rerouteNo="0" devices="tripinfo_north_west_flow.2 fcd_north_west_flow.2" vType="car" speedFactor="1.13" vaporized=""/>
    <tripinfo id="east_west_flow.1" depart="66.00" departLane="east_edge_0_0" departPos="5.10" departSpeed="0.00" departDelay="6.00" arrival="156.50" arrivalLane="east_edge_15_0" arrivalPos="55.26" arrivalSpeed="10.98" duration="90.50" routeLength="697.97" waitingTime="6.50" waitingCount="2" stopTime="0.00" timeLoss="28.72" rerouteNo="0" devices="tripinfo_east_west_flow.1 fcd_east_west_flow.1" vType="car" speedFactor="0.83" vaporized=""/>
    <tripinfo id="east_north_flow.2" depart="120.00" departLane="east_edge_0_0" departPos="5.10" departSpeed="0.00" departDelay="0.00" arrival="161.00" arrivalLane="north_edge_7_0" arrivalPos="19.59" arrivalSpeed="11.02" duration="41.00" routeLength="373.02" waitingTime="5.00" waitingCount="1" stopTime="0.00" timeLoss="12.47" rerouteNo="0" devices="tripinfo_east_north_flow.2 fcd_east_north_flow.2" vType="car" speedFactor="1.04" vaporized=""/>
    <tripinfo id="north_east1_flow.3" depart="90.00" departLane="north_edge_0_0" departPos="5.10" departSpeed="0.00" departDelay="0.00" arrival="163.00" arrivalLane="east_edge_15_0" arrivalPos="55.26" arrivalSpeed="13.49" duration="73.00" routeLength="642.65" waitingTime="2.00" waitingCount="1" stopTime="0.00" timeLoss="21.15" rerouteNo="0" devices="tripinfo_north_east1_flow.3 fcd_north_east1_flow.3" vType="car" speedFactor="0.97" vaporized=""/>
    <tripinfo id="north_east2_flow.2" depart="62.50" departLane="north_edge_0_0" departPos="5.10" departSpeed="0.00" departDelay="2.50" arrival="165.50" arrivalLane="east_edge_15_0" arrivalPos="55.26" arrivalSpeed="12.22" duration="103.00" routeLength="725.55" waitingTime="21.50" waitingCount="1" stopTime="0.00" timeLoss="40.65" rerouteNo="0" devices="tripinfo_north_east2_flow.2 fcd_north_east2_flow.2" vType="car" speedFactor="0.92" vaporized=""/>
    <tripinfo id="south_north_flow.3" depart="92.50" departLane="south_edge_0_0" departPos="5.10" departSpeed="0.00" departDelay="2.50" arrival="166.00" arrivalLane="south_edge_8_0" arrivalPos="37.83" arrivalSpeed="12.65" duration="73.50" routeLength="402.34" waitingTime="16.50" waitingCount="2" stopTime="0.00" timeLoss="37.96" rerouteNo="0" devices="tripinfo_south_north_flow.3 fcd_south_north_flow.3" vType="car" speedFactor="0.96" vaporized=""/>
    <tripinfo id="south_east_flow.3" depart="90.00" departLane="south_edge_0_0" departPos="5.10" departSpeed="0.00" departDelay="0.00" arrival="170.00" arrivalLane="east_edge_15_0" arrivalPos="55.26" arrivalSpeed="14.29" duration="80.00" routeLength="539.13" waitingTime="20.50" waitingCount="2" stopTime="0.00" timeLoss="39.09" rerouteNo="0" devices="tripinfo_south_east_flow.3 fcd_south_east_flow.3" vType="car" speedFactor="1.03" vaporized=""/>
    <tripinfo id="north_south_flow.3" depart="95.50" departLane="north_edge_0_0" departPos="5.10" departSpeed="0.00" departDelay="5.50" arrival="174.00" arrivalLane="north_edge_7_0" arrivalPos="19.59" arrivalSpeed="11.70" duration="78.50" routeLength="407.26" waitingTime="20.00" waitingCount="1" stopTime="0.00" timeLoss="46.79" rerouteNo="0" devices="tripinfo_north_south_flow.3 fcd_north_south_flow.3" vType="car" speedFactor="1.10" vaporized=""/>
    <tripinfo id="west_south_flow.3" depart="90.00" departLane="west_edge_1_0" departPos="5.10" departSpeed="0.00" departDelay="0.00" arrival="178.50" arrivalLane="south_edge_8_0" arrivalPos="37.83" arrivalSpeed="13.99" duration="88.50" routeLength="726.32" waitingTime="15.50" waitingCount="2" stopTime="0.00" timeLoss="32.81" rerouteNo="0" devices="tripinfo_west_south_flow.3 fcd_west_south_flow.3" vType="car" speedFactor="1.04" vaporized=""/>
    <tripinfo id="east_south_flow.4" depart="123.00" departLane="east_edge_0_0" departPos="5.10" departSpeed="0.00" departDelay="3.00" arrival="180.50" arrivalLane="south_edge_8_0" arrivalPos="37.83" arrivalSpeed="14.55" duration="57.50" routeLength="556.01" waitingTime="1.00" waitingCount="1" stopTime="0.00" timeLoss="17.04" rerouteNo="0" devices="tripinfo_east_south_flow.4 fcd_east_south_flow.4" vType="car" speedFactor="1.09" vaporized=""/>
    <tripinfo id="south_west_flow.3" depart="95.50" departLane="south_edge_0_0" departPos="5.10" departSpeed="0.00" departDelay="5.50" arrival="181.50" arrivalLane="west_edge_15_0" arrivalPos="45.96" arrivalSpeed="14.84" duration="86.00" routeLength="369.09" waitingTime="35.50" waitingCount="2" stopTime="0.00" timeLoss="59.21" rerouteNo="0" devices="tripinfo_south_west_flow.3 fcd_south_west_flow.3" vType="car" speedFactor="1.09" vaporized=""/>
    <tripinfo id="east_west_flow.2" depart="126.00" departLane="east_edge_0_0" departPos="5.10" departSpeed="0.00" departDelay="6.00" arrival="193.00" arrivalLane="east_edge_15_0" arrivalPos="55.26" arrivalSpeed="13.53" duration="67.00" routeLength="697.97" waitingTime="0.00" waitingCount="0" stopTime="0.00" timeLoss="15.54" rerouteNo="0" devices="tripinfo_east_west_flow.2 fcd_east_west_flow.2" vType="car" speedFactor="1.00" vaporized=""/>
    <tripinfo id="west_north_flow.2" depart="123.00" departLane="west_edge_1_0" departPos="5.10" departSpeed="0.00" departDelay="3.00" arrival="194.50" arrivalLane="north_edge_7_0" arrivalPos="19.59" arrivalSpeed="10.53" duration="71.50" routeLength="534.40" waitingTime="14.50" waitingCount="1" stopTime="0.00" timeLoss="29.49" rerouteNo="0" devices="tripinfo_west_north_flow.2 fcd_west_north_flow.2" vType="car" speedFactor="1.00" vaporized=""/>
    <tripinfo id="north_east2_flow.3" depart="92.50" departLane="north_edge_0_0" departPos="5.10" departSpeed="0.00" departDelay="2.50" arrival="196.50" arrivalLane="east_edge_15_0" arrivalPos="55.26" arrivalSpeed="15.85" duration="104.00" routeLength="725.55" waitingTime="22.00" waitingCount="1" stopTime="0.00" timeLoss="55.38" rerouteNo="0" devices="tripinfo_north_east2_flow.3 fcd_north_east2_flow.3" vType="car" speedFactor="1.18" vaporized=""/>
    <tripinfo id="north_west_flow.3" depart="99.50" departLane="north_edge_0_0" departPos="5.10" departSpeed="0.00" departDelay="9.50" arrival="200.50" arrivalLane="west_edge_15_0" arrivalPos="45.96" arrivalSpeed="12.29" duration="101.00" routeLength="567.33" waitingTime="27.00" waitingCount="2" stopTime="0.00" timeLoss="50.91" rerouteNo="0" devices="tripinfo_north_west_flow.3 fcd_north_west_flow.3" vType="car" speedFactor="0.90" vaporized=""/>
    <tripinfo id="west_east_flow.2" depart="120.00" departLane="west_edge_1_0" departPos="5.10" departSpeed="0.00" departDelay="0.00" arrival="203.50" arrivalLane="west_edge_15_0" arrivalPos="45.96" arrivalSpeed="13.75" duration="83.50" routeLength="699.56" waitingTime="19.00" waitingCount="1" stopTime="0.00" timeLoss="32.14" rerouteNo="0" devices="tripinfo_west_east_flow.2 fcd_west_east_flow.2" vType="car" speedFactor="1.00" vaporized=""/>
    <tripinfo id="east_south_flow.5" depart="150.00" departLane="east_edge_0_0" departPos="5.10" departSpeed="0.00" departDelay="0.00" arrival="208.50" arrivalLane="south_edge_8_0" arrivalPos="37.83" arrivalSpeed="15.67" duration="58.50" routeLength="556.01" waitingTime="7.00" waitingCount="1" stopTime="0.00" timeLoss="19.74" rerouteNo="0" devices="tripinfo_east_south_flow.5 fcd_east_south_flow.5" vType="car" speedFactor="1.14" vaporized=""/>
    <tripinfo id="south_east_flow.4" depart="120.00" departLane="south_edge_0_0" departPos="5.10" departSpeed="0.00" departDelay="0.00" arrival="211.50" arrivalLane="east_edge_15_0" arrivalPos="55.26" arrivalSpeed="16.22" duration="91.50" routeLength="539.13" waitingTime="29.50" waitingCount="2" stopTime="0.00" timeLoss="55.36" rerouteNo="0" devices="tripinfo_south_east_flow.4 fcd_south_east_flow.4" vType="car" speedFactor="1.17" vaporized=""/>
    <tripinfo id="north_south_flow.4" depart="125.00" departLane="north_edge_0_0" departPos="5.10" departSpeed="0.00" departDelay="5.00" arrival="219.00" arrivalLane="north_edge_7_0" arrivalPos="19.59" arrivalSpeed="8.87" duration="94.00" routeLength="407.26" waitingTime="26.50" waitingCount="3" stopTime="0.00" timeLoss="53.11" rerouteNo="0" devices="tripinfo_north_south_flow.4 fcd_north_south_flow.4" vType="car" speedFactor="0.85" vaporized=""/>
    <tripinfo id="west_south_flow.4" depart="125.50" departLane="west_edge_1_0" departPos="5.10" departSpeed="0.00" departDelay="5.50" arrival="219.00" arrivalLane="south_edge_8_0" arrivalPos="37.83" arrivalSpeed="11.90" duration="93.50" routeLength="726.32" waitingTime="14.50" waitingCount="1" stopTime="0.00" timeLoss="29.46" rerouteNo="0" devices="tripinfo_west_south_flow.4 fcd_west_south_flow.4" vType="car" speedFactor="0.90" vaporized=""/>
    <tripinfo id="south_west_flow.4" depart="125.50" departLane="south_edge_0_0" departPos="5.10" departSpeed="0.00" departDelay="5.50" arrival="223.50" arrivalLane="west_edge_15_0" arrivalPos="45.96" arrivalSpeed="14.57" duration="98.00" routeLength="369.09" waitingTime="45.00" waitingCount="3" stopTime="0.00" timeLoss="71.42" rerouteNo="0" devices="tripinfo_south_west_flow.4 fcd_south_west_flow.4" vType="car" speedFactor="1.10" vaporized=""/>
    <tripinfo id="west_south_flow.5" depart="150.00" departLane="west_edge_1_0" departPos="5.10" departSpeed="0.00" departDelay="0.00" arrival="226.50" arrivalLane="south_edge_8_0" arrivalPos="37.83" arrivalSpeed="11.61" duration="76.50" routeLength="726.32" waitingTime="0.00" waitingCount="0" stopTime="0.00" timeLoss="11.08" rerouteNo="0" devices="tripinfo_west_south_flow.5 fcd_west_south_flow.5" vType="car" speedFactor="0.88" vaporized=""/>
    <tripinfo id="south_north_flow.4" depart="122.50" departLane="south_edge_0_0" departPos="5.10" departSpeed="0.00" departDelay="2.50" arrival="230.00" arrivalLane="south_edge_8_0" arrivalPos="37.83" arrivalSpeed="14.06" duration="107.50" routeLength="402.34" waitingTime="48.00" waitingCount="3" stopTime="0.00" timeLoss="74.07" rerouteNo="0" devices="tripinfo_south_north_flow.4 fcd_south_north_flow.4" vType="car" speedFactor="1.02" vaporized=""/>
    <tripinfo id="north_east1_flow.4" depart="120.00" departLane="north_edge_0_0" departPos="5.10" departSpeed="0.00" departDelay="0.00" arrival="232.00" arrivalLane="east_edge_15_0" arrivalPos="55.26" arrivalSpeed="12.17" duration="112.00" routeLength="642.65" waitingTime="36.00" waitingCount="3" stopTime="0.00" timeLoss="55.57" rerouteNo="0" devices="tripinfo_north_east1_flow.4 fcd_north_east1_flow.4" vType="car" speedFactor="0.90" vaporized=""/>
    <tripinfo id="west_north_flow.3" depart="182.50" departLane="west_edge_1_0" departPos="5.10" departSpeed="0.00" departDelay="2.50" arrival="235.00" arrivalLane="north_edge_7_0" arrivalPos="19.59" arrivalSpeed="10.75" duration="52.50" routeLength="534.40" waitingTime="0.00" waitingCount="0" stopTime="0.00" timeLoss="9.62" rerouteNo="0" devices="tripinfo_west_north_flow.3 fcd_west_north_flow.3" vType="car" speedFactor="0.98" vaporized=""/>
    <tripinfo id="north_west_flow.4" depart="127.50" departLane="north_edge_0_0" departPos="5.10" departSpeed="0.00" departDelay="7.50" arrival="237.50" arrivalLane="west_edge_15_0" arrivalPos="45.96" arrivalSpeed="11.80" duration="110.00" routeLength="567.33" waitingTime="24.50" waitingCount="4" stopTime="0.00" timeLoss="57.40" rerouteNo="0" devices="tripinfo_north_west_flow.4 fcd_north_west_flow.4" vType="car" speedFactor="0.85" vaporized=""/>
    <tripinfo id="east_north_flow.3" depart="181.50" departLane="east_edge_0_0" departPos="5.10" departSpeed="0.00" departDelay="1.50" arrival="241.00" arrivalLane="north_edge_7_0" arrivalPos="19.59" arrivalSpeed="10.00" duration="59.50" routeLength="373.02" waitingTime="17.50" waitingCount="2" stopTime="0.00" timeLoss="26.80" rerouteNo="0" devices="tripinfo_east_north_flow.3 fcd_east_north_flow.3" vType="car" speedFactor="0.91" vaporized=""/>
    <tripinfo id="north_east1_flow.5" depart="150.00" departLane="north_edge_0_0" departPos="5.10" departSpeed="0.00" departDelay="0.00" arrival="242.00" arrivalLane="east_edge_15_0" arrivalPos="55.26" arrivalSpeed="14.13" duration="92.00" routeLength="642.65" waitingTime="18.00" waitingCount="1" stopTime="0.00" timeLoss="42.57" rerouteNo="0" devices="tripinfo_north_east1_flow.5 fcd_north_east1_flow.5" vType="car" speedFactor="1.02" vaporized=""/>
    <tripinfo id="west_east_flow.3" depart="180.00" departLane="west_edge_1_0" departPos="5.10" departSpeed="0.00" departDelay="0.00" arrival="243.00" arrivalLane="west_edge_15_0" arrivalPos="45.96" arrivalSpeed="13.71" duration="63.00" routeLength="699.56" waitingTime="0.00" waitingCount="0" stopTime="0.00" timeLoss="12.99" rerouteNo="0" devices="tripinfo_west_east_flow.3 fcd_west_east_flow.3" vType="car" speedFactor="1.03" vaporized=""/>
    <tripinfo id="south_north_flow.5" depart="152.50" departLane="south_edge_0_0" departPos="5.10" departSpeed="0.00" departDelay="2.50" arrival="245.50" arrivalLane="south_edge_8_0" arrivalPos="37.83" arrivalSpeed="13.16" duration="93.00" routeLength="402.34" waitingTime="25.00" waitingCount="3" stopTime="0.00" timeLoss="57.99" rerouteNo="0" devices="tripinfo_south_north_flow.5 fcd_south_north_flow.5" vType="car" speedFactor="0.99" vaporized=""/>