<?xml version="1.0" encoding="UTF-8"?>

<!-- generated on 2025-03-11 11:20:51 by Eclipse SUMO sumo Version 1.21.0
<sumoConfiguration xmlns:xsi="http://www.w3.org/2001/XMLSchema-instance" xsi:noNamespaceSchemaLocation="http://sumo.dlr.de/xsd/sumoConfiguration.xsd">

    <input>
        <net-file value="C:\Users\skyle\OneDrive\Desktop\SkylerTrafficControlSystem\simulation_files\network.net.xml"/>
        <route-files value="C:\Users\skyle\OneDrive\Desktop\SkylerTrafficControlSystem\simulation_files\routes.rou.xml"/>
        <additional-files value="C:\Users\skyle\OneDrive\Desktop\SkylerTrafficControlSystem\simulation_files\detectors.add.xml"/>
    </input>

    <output>
        <fcd-output value="C:\Users\skyle\OneDrive\Desktop\SkylerTrafficControlSystem\simulation_files\output_simulated_files/fcd.xml"/>
        <summary-output value="C:\Users\skyle\OneDrive\Desktop\SkylerTrafficControlSystem\simulation_files\output_simulated_files/summary.xml"/>
        <tripinfo-output value="tripinfo.xml"/>
    </output>

    <time>
        <begin value="0"/>
        <end value="5000"/>
        <step-length value="0.5"/>
    </time>

    <processing>
        <scale value="1"/>
    </processing>

    <traci_server>
        <remote-port value="58987"/>
    </traci_server>

</sumoConfiguration>
-->

<tripinfos xmlns:xsi="http://www.w3.org/2001/XMLSchema-instance" xsi:noNamespaceSchemaLocation="http://sumo.dlr.de/xsd/tripinfo_file.xsd">
    <tripinfo id="south_west_flow.0" depart="5.00" departLane="south_edge_0_0" departPos="5.10" departSpeed="0.00" departDelay="5.00" arrival="46.50" arrivalLane="west_edge_15_0" arrivalPos="45.96" arrivalSpeed="11.29" duration="41.50" routeLength="369.09" waitingTime="0.00" waitingCount="0" stopTime="0.00" timeLoss="7.58" rerouteNo="0" devices="tripinfo_south_west_flow.0 fcd_south_west_flow.0" vType="car" speedFactor="0.86" vaporized=""/>
    <tripinfo id="south_north_flow.0" depart="2.50" departLane="south_edge_0_0" departPos="5.10" departSpeed="0.00" departDelay="2.50" arrival="50.00" arrivalLane="south_edge_8_0" arrivalPos="37.83" arrivalSpeed="12.85" duration="47.50" routeLength="402.34" waitingTime="0.00" waitingCount="0" stopTime="0.00" timeLoss="11.29" rerouteNo="0" devices="tripinfo_south_north_flow.0 fcd_south_north_flow.0" vType="car" speedFactor="0.94" vaporized=""/>
    <tripinfo id="north_east1_flow.0" depart="0.00" departLane="north_edge_0_0" departPos="5.10" departSpeed="0.00" departDelay="0.00" arrival="54.00" arrivalLane="east_edge_15_0" arrivalPos="55.26" arrivalSpeed="14.42" duration="54.00" routeLength="642.65" waitingTime="0.00" waitingCount="0" stopTime="0.00" timeLoss="7.24" rerouteNo="0" devices="tripinfo_north_east1_flow.0 fcd_north_east1_flow.0" vType="car" speedFactor="1.08" vaporized=""/>
    <tripinfo id="west_north_flow.0" depart="3.00" departLane="west_edge_1_0" departPos="5.10" departSpeed="0.00" departDelay="3.00" arrival="55.50" arrivalLane="north_edge_7_0" arrivalPos="19.59" arrivalSpeed="10.96" duration="52.50" routeLength="534.40" waitingTime="0.00" waitingCount="0" stopTime="0.00" timeLoss="11.38" rerouteNo="0" devices="tripinfo_west_north_flow.0 fcd_west_north_flow.0" vType="car" speedFactor="1.03" vaporized=""/>
    <tripinfo id="east_north_flow.0" depart="0.00" departLane="east_edge_0_0" departPos="5.10" departSpeed="0.00" departDelay="0.00" arrival="60.00" arrivalLane="north_edge_7_0" arrivalPos="19.59" arrivalSpeed="11.70" duration="60.00" routeLength="373.02" waitingTime="22.00" waitingCount="2" stopTime="0.00" timeLoss="32.34" rerouteNo="0" devices="tripinfo_east_north_flow.0 fcd_east_north_flow.0" vType="car" speedFactor="1.06" vaporized=""/>
    <tripinfo id="south_east_flow.0" depart="0.00" departLane="south_edge_0_0" departPos="5.10" departSpeed="0.00" departDelay="0.00" arrival="60.00" arrivalLane="east_edge_15_0" arrivalPos="55.26" arrivalSpeed="12.10" duration="60.00" routeLength="539.13" waitingTime="2.00" waitingCount="1" stopTime="0.00" timeLoss="12.42" rerouteNo="0" devices="tripinfo_south_east_flow.0 fcd_south_east_flow.0" vType="car" speedFactor="0.89" vaporized=""/>
    <tripinfo id="west_east_flow.0" depart="0.00" departLane="west_edge_1_0" departPos="5.10" departSpeed="0.00" departDelay="0.00" arrival="63.00" arrivalLane="west_edge_15_0" arrivalPos="45.96" arrivalSpeed="14.81" duration="63.00" routeLength="699.56" waitingTime="1.50" waitingCount="1" stopTime="0.00" timeLoss="15.83" rerouteNo="0" devices="tripinfo_west_east_flow.0 fcd_west_east_flow.0" vType="car" speedFactor="1.09" vaporized=""/>
    <tripinfo id="north_east2_flow.0" depart="2.50" departLane="north_edge_0_0" departPos="5.10" departSpeed="0.00" departDelay="2.50" arrival="69.50" arrivalLane="east_edge_15_0" arrivalPos="55.26" arrivalSpeed="14.31" duration="67.00" routeLength="725.55" waitingTime="0.00" waitingCount="0" stopTime="0.00" timeLoss="11.40" rerouteNo="0" devices="tripinfo_north_east2_flow.0 fcd_north_east2_flow.0" vType="car" speedFactor="1.03" vaporized=""/>
    <tripinfo id="west_south_flow.0" depart="5.50" departLane="west_edge_1_0" departPos="5.10" departSpeed="0.00" departDelay="5.50" arrival="75.00" arrivalLane="south_edge_8_0" arrivalPos="37.83" arrivalSpeed="14.32" duration="69.50" routeLength="726.32" waitingTime="0.00" waitingCount="0" stopTime="0.00" timeLoss="14.53" rerouteNo="0" devices="tripinfo_west_south_flow.0 fcd_west_south_flow.0" vType="car" speedFactor="1.05" vaporized=""/>
    <tripinfo id="east_south_flow.0" depart="2.50" departLane="east_edge_0_0" departPos="5.10" departSpeed="0.00" departDelay="2.50" arrival="81.00" arrivalLane="south_edge_8_0" arrivalPos="37.83" arrivalSpeed="12.90" duration="78.50" routeLength="556.01" waitingTime="14.50" waitingCount="2" stopTime="0.00" timeLoss="31.69" rerouteNo="0" devices="tripinfo_east_south_flow.0 fcd_east_south_flow.0" vType="car" speedFactor="0.94" vaporized=""/>
    <tripinfo id="east_south_flow.1" depart="30.00" departLane="east_edge_0_0" departPos="5.10" departSpeed="0.00" departDelay="0.00" arrival="83.00" arrivalLane="south_edge_8_0" arrivalPos="37.83" arrivalSpeed="15.20" duration="53.00" routeLength="556.01" waitingTime="0.00" waitingCount="0" stopTime="0.00" timeLoss="13.78" rerouteNo="0" devices="tripinfo_east_south_flow.1 fcd_east_south_flow.1" vType="car" speedFactor="1.12" vaporized=""/>
    <tripinfo id="east_west_flow.0" depart="5.00" departLane="east_edge_0_0" departPos="5.10" departSpeed="0.00" departDelay="5.00" arrival="91.00" arrivalLane="east_edge_15_0" arrivalPos="55.26" arrivalSpeed="13.44" duration="86.00" routeLength="697.97" waitingTime="11.50" waitingCount="2" stopTime="0.00" timeLoss="35.52" rerouteNo="0" devices="tripinfo_east_west_flow.0 fcd_east_west_flow.0" vType="car" speedFactor="1.01" vaporized=""/>
    <tripinfo id="north_south_flow.0" depart="5.50" departLane="north_edge_0_0" departPos="5.10" departSpeed="0.00" departDelay="5.50" arrival="91.00" arrivalLane="north_edge_7_0" arrivalPos="19.59" arrivalSpeed="9.15" duration="85.50" routeLength="407.26" waitingTime="34.50" waitingCount="1" stopTime="0.00" timeLoss="43.56" rerouteNo="0" devices="tripinfo_north_south_flow.0 fcd_north_south_flow.0" vType="car" speedFactor="0.83" vaporized=""/>
    <tripinfo id="west_south_flow.1" depart="30.00" departLane="west_edge_1_0" departPos="5.10" departSpeed="0.00" departDelay="0.00" arrival="98.00" arrivalLane="south_edge_8_0" arrivalPos="37.83" arrivalSpeed="13.73" duration="68.00" routeLength="726.32" waitingTime="0.00" waitingCount="0" stopTime="0.00" timeLoss="10.83" rerouteNo="0" devices="tripinfo_west_south_flow.1 fcd_west_south_flow.1" vType="car" speedFactor="1.01" vaporized=""/>
    <tripinfo id="north_south_flow.1" depart="36.00" departLane="north_edge_0_0" departPos="5.10" departSpeed="0.00" departDelay="6.00" arrival="109.00" arrivalLane="north_edge_7_0" arrivalPos="19.59" arrivalSpeed="9.42" duration="73.00" routeLength="407.26" waitingTime="12.00" waitingCount="2" stopTime="0.00" timeLoss="33.32" rerouteNo="0" devices="tripinfo_north_south_flow.1 fcd_north_south_flow.1" vType="car" speedFactor="0.88" vaporized=""/>
    <tripinfo id="north_west_flow.0" depart="8.00" departLane="north_edge_0_0" departPos="5.10" departSpeed="0.00" departDelay="8.00" arrival="111.50" arrivalLane="west_edge_15_0" arrivalPos="45.96" arrivalSpeed="14.37" duration="103.50" routeLength="567.33" waitingTime="40.00" waitingCount="2" stopTime="0.00" timeLoss="60.11" rerouteNo="0" devices="tripinfo_north_west_flow.0 fcd_north_west_flow.0" vType="car" speedFactor="1.05" vaporized=""/>
    <tripinfo id="south_west_flow.1" depart="35.00" departLane="south_edge_0_0" departPos="5.10" departSpeed="0.00" departDelay="5.00" arrival="116.00" arrivalLane="west_edge_15_0" arrivalPos="45.96" arrivalSpeed="14.14" duration="81.00" routeLength="369.09" waitingTime="34.00" waitingCount="2" stopTime="0.00" timeLoss="52.49" rerouteNo="0" devices="tripinfo_south_west_flow.1 fcd_south_west_flow.1" vType="car" speedFactor="1.02" vaporized=""/>
    <tripinfo id="north_east1_flow.1" depart="30.00" departLane="north_edge_0_0" departPos="5.10" departSpeed="0.00" departDelay="0.00" arrival="120.00" arrivalLane="east_edge_15_0" arrivalPos="55.26" arrivalSpeed="13.22" duration="90.00" routeLength="642.65" waitingTime="19.50" waitingCount="2" stopTime="0.00" timeLoss="39.15" rerouteNo="0" devices="tripinfo_north_east1_flow.1 fcd_north_east1_flow.1" vType="car" speedFactor="0.99" vaporized=""/>
    <tripinfo id="south_north_flow.1" depart="32.50" departLane="south_edge_0_0" departPos="5.10" departSpeed="0.00" departDelay="2.50" arrival="120.00" arrivalLane="south_edge_8_0" arrivalPos="37.83" arrivalSpeed="15.60" duration="87.50" routeLength="402.34" waitingTime="36.50" waitingCount="2" stopTime="0.00" timeLoss="57.81" rerouteNo="0" devices="tripinfo_south_north_flow.1 fcd_south_north_flow.1" vType="car" speedFactor="1.16" vaporized=""/>
    <tripinfo id="north_south_flow.2" depart="65.00" departLane="north_edge_0_0" departPos="5.10" departSpeed="0.00" departDelay="5.00" arrival="122.00" arrivalLane="north_edge_7_0" arrivalPos="19.59" arrivalSpeed="10.29" duration="57.00" routeLength="407.26" waitingTime="0.00" waitingCount="0" stopTime="0.00" timeLoss="20.21" rerouteNo="0" devices="tripinfo_north_south_flow.2 fcd_north_south_flow.2" vType="car" speedFactor="0.95" vaporized=""/>
    <tripinfo id="north_west_flow.1" depart="39.00" departLane="north_edge_0_0" departPos="5.10" departSpeed="0.00" departDelay="9.00" arrival="126.00" arrivalLane="west_edge_15_0" arrivalPos="45.96" arrivalSpeed="13.04" duration="87.00" routeLength="567.33" waitingTime="12.00" waitingCount="3" stopTime="0.00" timeLoss="38.96" rerouteNo="0" devices="tripinfo_north_west_flow.1 fcd_north_west_flow.1" vType="car" speedFactor="0.94" vaporized=""/>
    <tripinfo id="south_west_flow.2" depart="65.00" departLane="south_edge_0_0" departPos="5.10" departSpeed="0.00" departDelay="5.00" arrival="127.50" arrivalLane="west_edge_15_0" arrivalPos="45.96" arrivalSpeed="15.48" duration="62.50" routeLength="369.09" waitingTime="4.50" waitingCount="2" stopTime="0.00" timeLoss="37.34" rerouteNo="0" devices="tripinfo_south_west_flow.2 fcd_south_west_flow.2" vType="car" speedFactor="1.15" vaporized=""/>
    <tripinfo id="south_east_flow.1" depart="30.00" departLane="south_edge_0_0" departPos="5.10" departSpeed="0.00" departDelay="0.00" arrival="131.00" arrivalLane="east_edge_15_0" arrivalPos="55.26" arrivalSpeed="12.51" duration="101.00" routeLength="539.13" waitingTime="42.00" waitingCount="2" stopTime="0.00" timeLoss="55.70" rerouteNo="0" devices="tripinfo_south_east_flow.1 fcd_south_east_flow.1" vType="car" speedFactor="0.94" vaporized=""/>
    <tripinfo id="south_north_flow.2" depart="62.50" departLane="south_edge_0_0" departPos="5.10" departSpeed="0.00" departDelay="2.50" arrival="133.00" arrivalLane="south_edge_8_0" arrivalPos="37.83" arrivalSpeed="15.84" duration="70.50" routeLength="402.34" waitingTime="8.00" waitingCount="3" stopTime="0.00" timeLoss="41.47" rerouteNo="0" devices="tripinfo_south_north_flow.2 fcd_south_north_flow.2" vType="car" speedFactor="1.18" vaporized=""/>
    <tripinfo id="west_north_flow.1" depart="62.50" departLane="west_edge_1_0" departPos="5.10" departSpeed="0.00" departDelay="2.50" arrival="134.50" arrivalLane="north_edge_7_0" arrivalPos="19.59" arrivalSpeed="13.10" duration="72.00" routeLength="534.40" waitingTime="17.00" waitingCount="1" stopTime="0.00" timeLoss="36.15" rerouteNo="0" devices="tripinfo_west_north_flow.1 fcd_west_north_flow.1" vType="car" speedFactor="1.17" vaporized=""/>
    <tripinfo id="north_east1_flow.2" depart="60.00" departLane="north_edge_0_0" departPos="5.10" departSpeed="0.00" departDelay="0.00" arrival="137.00" arrivalLane="east_edge_15_0" arrivalPos="55.26" arrivalSpeed="11.74" duration="77.00" routeLength="642.65" waitingTime="0.00" waitingCount="0" stopTime="0.00" timeLoss="18.84" rerouteNo="0" devices="tripinfo_north_east1_flow.2 fcd_north_east1_flow.2" vType="car" speedFactor="0.87" vaporized=""/>
    <tripinfo id="north_west_flow.2" depart="68.00" departLane="north_edge_0_0" departPos="5.10" departSpeed="0.00" departDelay="8.00" arrival="138.00" arrivalLane="west_edge_15_0" arrivalPos="45.96" arrivalSpeed="15.56" duration="70.00" routeLength="567.33" waitingTime="2.50" waitingCount="1" stopTime="0.00" timeLoss="29.61" rerouteNo="0" devices="tripinfo_north_west_flow.2 fcd_north_west_flow.2" vType="car" speedFactor="1.13" vaporized=""/>
    <tripinfo id="north_east2_flow.1" depart="33.00" departLane="north_edge_0_0" departPos="5.10" departSpeed="0.00" departDelay="3.00" arrival="140.00" arrivalLane="east_edge_15_0" arrivalPos="55.26" arrivalSpeed="12.67" duration="107.00" routeLength="725.55" waitingTime="17.50" waitingCount="3" stopTime="0.00" timeLoss="45.22" rerouteNo="0" devices="tripinfo_north_east2_flow.1 fcd_north_east2_flow.1" vType="car" speedFactor="0.93" vaporized=""/>
    <tripinfo id="south_east_flow.2" depart="60.00" departLane="south_edge_0_0" departPos="5.10" departSpeed="0.00" departDelay="0.00" arrival="143.50" arrivalLane="east_edge_15_0" arrivalPos="55.26" arrivalSpeed="12.65" duration="83.50" routeLength="539.13" waitingTime="12.50" waitingCount="3" stopTime="0.00" timeLoss="38.09" rerouteNo="0" devices="tripinfo_south_east_flow.2 fcd_south_east_flow.2" vType="car" speedFactor="0.93" vaporized=""/>
    <tripinfo id="east_north_flow.1" depart="60.00" departLane="east_edge_0_0" departPos="5.10" departSpeed="0.00" departDelay="0.00" arrival="144.00" arrivalLane="north_edge_7_0" arrivalPos="19.59" arrivalSpeed="10.65" duration="84.00" routeLength="373.02" waitingTime="44.00" waitingCount="2" stopTime="0.00" timeLoss="53.50" rerouteNo="0" devices="tripinfo_east_north_flow.1 fcd_east_north_flow.1" vType="car" speedFactor="0.97" vaporized=""/>
    <tripinfo id="west_east_flow.1" depart="60.00" departLane="west_edge_1_0" departPos="5.10" departSpeed="0.00" departDelay="0.00" arrival="144.50" arrivalLane="west_edge_15_0" arrivalPos="45.96" arrivalSpeed="13.70" duration="84.50" routeLength="699.56" waitingTime="20.00" waitingCount="1" stopTime="0.00" timeLoss="33.30" rerouteNo="0" devices="tripinfo_west_east_flow.1 fcd_west_east_flow.1" vType="car" speedFactor="1.01" vaporized=""/>
    <tripinfo id="north_east2_flow.2" depart="62.50" departLane="north_edge_0_0" departPos="5.10" departSpeed="0.00" departDelay="2.50" arrival="148.50" arrivalLane="east_edge_15_0" arrivalPos="55.26" arrivalSpeed="12.47" duration="86.00" routeLength="725.55" waitingTime="0.00" waitingCount="0" stopTime="0.00" timeLoss="23.73" rerouteNo="0" devices="tripinfo_north_east2_flow.2 fcd_north_east2_flow.2" vType="car" speedFactor="0.92" vaporized=""/>
    <tripinfo id="east_north_flow.2" depart="120.00" departLane="east_edge_0_0" departPos="5.10" departSpeed="0.00" departDelay="0.00" arrival="153.00" arrivalLane="north_edge_7_0" arrivalPos="19.59" arrivalSpeed="11.02" duration="33.00" routeLength="373.02" waitingTime="0.00" waitingCount="0" stopTime="0.00" timeLoss="4.68" rerouteNo="0" devices="tripinfo_east_north_flow.2 fcd_east_north_flow.2" vType="car" speedFactor="1.04" vaporized=""/>
    <tripinfo id="south_east_flow.3" depart="90.00" departLane="south_edge_0_0" departPos="5.10" departSpeed="0.00" departDelay="0.00" arrival="155.50" arrivalLane="east_edge_15_0" arrivalPos="55.26" arrivalSpeed="14.20" duration="65.50" routeLength="539.13" waitingTime="4.00" waitingCount="1" stopTime="0.00" timeLoss="24.61" rerouteNo="0" devices="tripinfo_south_east_flow.3 fcd_south_east_flow.3" vType="car" speedFactor="1.03" vaporized=""/>
    <tripinfo id="west_south_flow.2" depart="65.00" departLane="west_edge_1_0" departPos="5.10" departSpeed="0.00" departDelay="5.00" arrival="157.00" arrivalLane="south_edge_8_0" arrivalPos="37.83" arrivalSpeed="13.62" duration="92.00" routeLength="726.32" waitingTime="18.00" waitingCount="1" stopTime="0.00" timeLoss="34.60" rerouteNo="0" devices="tripinfo_west_south_flow.2 fcd_west_south_flow.2" vType="car" speedFactor="0.99" vaporized=""/>
    <tripinfo id="west_south_flow.3" depart="90.00" departLane="west_edge_1_0" departPos="5.10" departSpeed="0.00" departDelay="0.00" arrival="160.00" arrivalLane="south_edge_8_0" arrivalPos="37.83" arrivalSpeed="14.15" duration="70.00" routeLength="726.32" waitingTime="0.00" waitingCount="0" stopTime="0.00" timeLoss="14.67" rerouteNo="0" devices="tripinfo_west_south_flow.3 fcd_west_south_flow.3" vType="car" speedFactor="1.04" vaporized=""/>
    <tripinfo id="east_south_flow.2" depart="63.00" departLane="east_edge_0_0" departPos="5.10" departSpeed="0.00" departDelay="3.00" arrival="165.50" arrivalLane="south_edge_8_0" arrivalPos="37.83" arrivalSpeed="11.97" duration="102.50" routeLength="556.01" waitingTime="35.50" waitingCount="2" stopTime="0.00" timeLoss="53.26" rerouteNo="0" devices="tripinfo_east_south_flow.2 fcd_east_south_flow.2" vType="car" speedFactor="0.89" vaporized=""/>
    <tripinfo id="east_south_flow.3" depart="90.00" departLane="east_edge_0_0" departPos="5.10" departSpeed="0.00" departDelay="0.00" arrival="167.50" arrivalLane="south_edge_8_0" arrivalPos="37.83" arrivalSpeed="13.58" duration="77.50" routeLength="556.01" waitingTime="11.00" waitingCount="2" stopTime="0.00" timeLoss="34.30" rerouteNo="0" devices="tripinfo_east_south_flow.3 fcd_east_south_flow.3" vType="car" speedFactor="1.02" vaporized=""/>
    <tripinfo id="east_south_flow.4" depart="122.50" departLane="east_edge_0_0" departPos="5.10" departSpeed="0.00" departDelay="2.50" arrival="172.00" arrivalLane="south_edge_8_0" arrivalPos="37.83" arrivalSpeed="14.56" duration="49.50" routeLength="556.01" waitingTime="0.00" waitingCount="0" stopTime="0.00" timeLoss="9.08" rerouteNo="0" devices="tripinfo_east_south_flow.4 fcd_east_south_flow.4" vType="car" speedFactor="1.09" vaporized=""/>
    <tripinfo id="west_east_flow.2" depart="120.00" departLane="west_edge_1_0" departPos="5.10" departSpeed="0.00" departDelay="0.00" arrival="179.50" arrivalLane="west_edge_15_0" arrivalPos="45.96" arrivalSpeed="13.89" duration="59.50" routeLength="699.56" waitingTime="0.00" waitingCount="0" stopTime="0.00" timeLoss="8.20" rerouteNo="0" devices="tripinfo_west_east_flow.2 fcd_west_east_flow.2" vType="car" speedFactor="1.00" vaporized=""/>
    <tripinfo id="east_west_flow.1" depart="66.00" departLane="east_edge_0_0" departPos="5.10" departSpeed="0.00" departDelay="6.00" arrival="180.50" arrivalLane="east_edge_15_0" arrivalPos="55.26" arrivalSpeed="10.90" duration="114.50" routeLength="697.97" waitingTime="31.50" waitingCount="2" stopTime="0.00" timeLoss="52.23" rerouteNo="0" devices="tripinfo_east_west_flow.1 fcd_east_west_flow.1" vType="car" speedFactor="0.83" vaporized=""/>
    <tripinfo id="north_south_flow.3" depart="95.00" departLane="north_edge_0_0" departPos="5.10" departSpeed="0.00" departDelay="5.00" arrival="181.50" arrivalLane="north_edge_7_0" arrivalPos="19.59" arrivalSpeed="11.70" duration="86.50" routeLength="407.26" waitingTime="40.00" waitingCount="1" stopTime="0.00" timeLoss="54.80" rerouteNo="0" devices="tripinfo_north_south_flow.3 fcd_north_south_flow.3" vType="car" speedFactor="1.10" vaporized=""/>
    <tripinfo id="east_west_flow.2" depart="127.50" departLane="east_edge_0_0" departPos="5.10" departSpeed="0.00" departDelay="7.50" arrival="187.00" arrivalLane="east_edge_15_0" arrivalPos="55.26" arrivalSpeed="13.40" duration="59.50" routeLength="697.97" waitingTime="0.00" waitingCount="0" stopTime="0.00" timeLoss="8.32" rerouteNo="0" devices="tripinfo_east_west_flow.2 fcd_east_west_flow.2" vType="car" speedFactor="1.00" vaporized=""/>
    <tripinfo id="south_west_flow.3" depart="95.50" departLane="south_edge_0_0" departPos="5.10" departSpeed="0.00" departDelay="5.50" arrival="189.50" arrivalLane="west_edge_15_0" arrivalPos="45.96" arrivalSpeed="14.84" duration="94.00" routeLength="369.09" waitingTime="46.00" waitingCount="1" stopTime="0.00" timeLoss="67.13" rerouteNo="0" devices="tripinfo_south_west_flow.3 fcd_south_west_flow.3" vType="car" speedFactor="1.09" vaporized=""/>
    <tripinfo id="north_east1_flow.3" depart="90.00" departLane="north_edge_0_0" departPos="5.10" departSpeed="0.00" departDelay="0.00" arrival="195.50" arrivalLane="east_edge_15_0" arrivalPos="55.26" arrivalSpeed="13.11" duration="105.50" routeLength="642.65" waitingTime="44.50" waitingCount="1" stopTime="0.00" timeLoss="53.88" rerouteNo="0" devices="tripinfo_north_east1_flow.3 fcd_north_east1_flow.3" vType="car" speedFactor="0.97" vaporized=""/>
    <tripinfo id="south_north_flow.3" depart="92.50" departLane="south_edge_0_0" departPos="5.10" departSpeed="0.00" departDelay="2.50" arrival="197.50" arrivalLane="south_edge_8_0" arrivalPos="37.83" arrivalSpeed="13.02" duration="105.00" routeLength="402.34" waitingTime="49.00" waitingCount="2" stopTime="0.00" timeLoss="69.07" rerouteNo="0" devices="tripinfo_south_north_flow.3 fcd_south_north_flow.3" vType="car" speedFactor="0.96" vaporized=""/>
    <tripinfo id="north_south_flow.4" depart="125.00" departLane="north_edge_0_0" departPos="5.10" departSpeed="0.00" departDelay="5.00" arrival="198.00" arrivalLane="north_edge_7_0" arrivalPos="19.59" arrivalSpeed="9.11" duration="73.00" routeLength="407.26" waitingTime="11.50" waitingCount="1" stopTime="0.00" timeLoss="32.09" rerouteNo="0" devices="tripinfo_north_south_flow.4 fcd_north_south_flow.4" vType="car" speedFactor="0.85" vaporized=""/>
    <tripinfo id="north_west_flow.3" depart="98.00" departLane="north_edge_0_0" departPos="5.10" departSpeed="0.00" departDelay="8.00" arrival="202.00" arrivalLane="west_edge_15_0" arrivalPos="45.96" arrivalSpeed="12.08" duration="104.00" routeLength="567.33" waitingTime="38.00" waitingCount="2" stopTime="0.00" timeLoss="53.78" rerouteNo="0" devices="tripinfo_north_west_flow.3 fcd_north_west_flow.3" vType="car" speedFactor="0.90" vaporized=""/>
    <tripinfo id="south_west_flow.4" depart="125.50" departLane="south_edge_0_0" departPos="5.10" departSpeed="0.00" departDelay="5.50" arrival="203.50" arrivalLane="west_edge_15_0" arrivalPos="45.96" arrivalSpeed="14.74" duration="78.00" routeLength="369.09" waitingTime="29.50" waitingCount="1" stopTime="0.00" timeLoss="51.29" rerouteNo="0" devices="tripinfo_south_west_flow.4 fcd_south_west_flow.4" vType="car" speedFactor="1.10" vaporized=""/>
    <tripinfo id="north_east2_flow.3" depart="92.50" departLane="north_edge_0_0" departPos="5.10" departSpeed="0.00" departDelay="2.50" arrival="204.50" arrivalLane="east_edge_15_0" arrivalPos="55.26" arrivalSpeed="15.85" duration="112.00" routeLength="725.55" waitingTime="41.50" waitingCount="1" stopTime="0.00" timeLoss="63.25" rerouteNo="0" devices="tripinfo_north_east2_flow.3 fcd_north_east2_flow.3" vType="car" speedFactor="1.18" vaporized=""/>
    <tripinfo id="north_south_flow.5" depart="157.00" departLane="north_edge_0_0" departPos="5.10" departSpeed="0.00" departDelay="7.00" arrival="209.00" arrivalLane="north_edge_7_0" arrivalPos="19.59" arrivalSpeed="11.46" duration="52.00" routeLength="407.26" waitingTime="0.00" waitingCount="0" stopTime="0.00" timeLoss="19.68" rerouteNo="0" devices="tripinfo_north_south_flow.5 fcd_north_south_flow.5" vType="car" speedFactor="1.08" vaporized=""/>
    <tripinfo id="south_north_flow.4" depart="122.50" departLane="south_edge_0_0" departPos="5.10" departSpeed="0.00" departDelay="2.50" arrival="209.50" arrivalLane="south_edge_8_0" arrivalPos="37.83" arrivalSpeed="13.52" duration="87.00" routeLength="402.34" waitingTime="32.50" waitingCount="2" stopTime="0.00" timeLoss="53.38" rerouteNo="0" devices="tripinfo_south_north_flow.4 fcd_south_north_flow.4" vType="car" speedFactor="1.02" vaporized=""/>
    <tripinfo id="north_east1_flow.4" depart="120.00" departLane="north_edge_0_0" departPos="5.10" departSpeed="0.00" departDelay="0.00" arrival="210.50" arrivalLane="east_edge_15_0" arrivalPos="55.26" arrivalSpeed="12.11" duration="90.50" routeLength="642.65" waitingTime="16.00" waitingCount="1" stopTime="0.00" timeLoss="34.49" rerouteNo="0" devices="tripinfo_north_east1_flow.4 fcd_north_east1_flow.4" vType="car" speedFactor="0.90" vaporized=""/>
    <tripinfo id="south_east_flow.4" depart="120.00" departLane="south_edge_0_0" departPos="5.10" departSpeed="0.00" departDelay="0.00" arrival="213.00" arrivalLane="east_edge_15_0" arrivalPos="55.26" arrivalSpeed="15.96" duration="93.00" routeLength="539.13" waitingTime="36.50" waitingCount="2" stopTime="0.00" timeLoss="56.84" rerouteNo="0" devices="tripinfo_south_east_flow.4 fcd_south_east_flow.4" vType="car" speedFactor="1.17" vaporized=""/>
    <tripinfo id="north_west_flow.4" depart="127.50" departLane="north_edge_0_0" departPos="5.10" departSpeed="0.00" departDelay="7.50" arrival="217.00" arrivalLane="west_edge_15_0" arrivalPos="45.96" arrivalSpeed="11.65" duration="89.50" routeLength="567.33" waitingTime="12.50" waitingCount="2" stopTime="0.00" timeLoss="36.71" rerouteNo="0" devices="tripinfo_north_west_flow.4 fcd_north_west_flow.4" vType="car" speedFactor="0.85" vaporized=""/>
    <tripinfo id="south_west_flow.5" depart="155.50" departLane="south_edge_0_0" departPos="5.10" departSpeed="0.00" departDelay="5.50" arrival="220.00" arrivalLane="west_edge_15_0" arrivalPos="45.96" arrivalSpeed="12.82" duration="64.50" routeLength="369.09" waitingTime="4.50" waitingCount="2" stopTime="0.00" timeLoss="33.53" rerouteNo="0" devices="tripinfo_south_west_flow.5 fcd_south_west_flow.5" vType="car" speedFactor="0.94" vaporized=""/>
    <tripinfo id="north_east1_flow.5" depart="150.00" departLane="north_edge_0_0" departPos="5.10" departSpeed="0.00" departDelay="0.00" arrival="221.50" arrivalLane="east_edge_15_0" arrivalPos="55.26" arrivalSpeed="13.97" duration="71.50" routeLength="642.65" waitingTime="0.00" waitingCount="0" stopTime="0.00" timeLoss="22.13" rerouteNo="0" devices="tripinfo_north_east1_flow.5 fcd_north_east1_flow.5" vType="car" speedFactor="1.02" vaporized=""/>
    <tripinfo id="west_north_flow.2" depart="123.00" departLane="west_edge_1_0" departPos="5.10" departSpeed="0.00" departDelay="3.00" arrival="223.50" arrivalLane="north_edge_7_0" arrivalPos="19.59" arrivalSpeed="11.04" duration="100.50" routeLength="534.40" waitingTime="47.00" waitingCount="1" stopTime="0.00" timeLoss="58.30" rerouteNo="0" devices="tripinfo_west_north_flow.2 fcd_west_north_flow.2" vType="car" speedFactor="1.00" vaporized=""/>
    <tripinfo id="south_north_flow.5" depart="152.50" departLane="south_edge_0_0" departPos="5.10" departSpeed="0.00" departDelay="2.50" arrival="225.00" arrivalLane="south_edge_8_0" arrivalPos="37.83" arrivalSpeed="13.21" duration="72.50" routeLength="402.34" waitingTime="7.00" waitingCount="2" stopTime="0.00" timeLoss="37.52" rerouteNo="0" devices="tripinfo_south_north_flow.5 fcd_south_north_flow.5" vType="car" speedFactor="0.99" vaporized=""/>
    <tripinfo id="north_east2_flow.4" depart="122.50" departLane="north_edge_0_0" departPos="5.10" departSpeed="0.00" departDelay="2.50" arrival="225.50" arrivalLane="east_edge_15_0" arrivalPos="55.26" arrivalSpeed="12.07" duration="103.00" routeLength="725.55" waitingTime="14.00" waitingCount="1" stopTime="0.00" timeLoss="37.62" rerouteNo="0" devices="tripinfo_north_east2_flow.4 fcd_north_east2_flow.4" vType="car" speedFactor="0.88" vaporized=""/>
    <tripinfo id="south_west_flow.6" depart="185.00" departLane="south_edge_0_0" departPos="5.10" departSpeed="0.00" departDelay="5.00" arrival="227.50" arrivalLane="west_edge_15_0" arrivalPos="45.96" arrivalSpeed="13.20" duration="42.50" routeLength="369.09" waitingTime="0.00" waitingCount="0" stopTime="0.00" timeLoss="12.99" rerouteNo="0" devices="tripinfo_south_west_flow.6 fcd_south_west_flow.6" vType="car" speedFactor="0.98" vaporized=""/>
    <tripinfo id="north_west_flow.5" depart="160.00" departLane="north_edge_0_0" departPos="5.10" departSpeed="0.00" departDelay="10.00" arrival="229.00" arrivalLane="west_edge_15_0" arrivalPos="45.96" arrivalSpeed="15.51" duration="69.00" routeLength="567.33" waitingTime="4.50" waitingCount="1" stopTime="0.00" timeLoss="28.81" rerouteNo="0" devices="tripinfo_north_west_flow.5 fcd_north_west_flow.5" vType="car" speedFactor="1.12" vaporized=""/>
    <tripinfo id="south_east_flow.5" depart="150.00" departLane="south_edge_0_0" departPos="5.10" departSpeed="0.00" departDelay="0.00" arrival="230.00" arrivalLane="east_edge_15_0" arrivalPos="55.26" arrivalSpeed="14.00" duration="80.00" routeLength="539.13" waitingTime="11.00" waitingCount="2" stopTime="0.00" timeLoss="38.71" rerouteNo="0" devices="tripinfo_south_east_flow.5 fcd_south_east_flow.5" vType="car" speedFactor="1.02" vaporized=""/>