<?xml version="1.0" encoding="UTF-8"?>

<!-- generated on 2025-04-10 11:52:20 by Eclipse SUMO GUI Version 1.21.0
<sumoConfiguration xmlns:xsi="http://www.w3.org/2001/XMLSchema-instance" xsi:noNamespaceSchemaLocation="http://sumo.dlr.de/xsd/sumoConfiguration.xsd">

    <input>
        <net-file value="C:\Users\skyle\OneDrive\Desktop\SkylerTrafficControlSystem\simulation_files\network.net.xml"/>
        <route-files value="C:\Users\skyle\OneDrive\Desktop\SkylerTrafficControlSystem\simulation_files\routes.rou.xml"/>
        <additional-files value="C:\Users\skyle\OneDrive\Desktop\SkylerTrafficControlSystem\simulation_files\detectors.add.xml"/>
    </input>

    <output>
        <fcd-output value="C:\Users\skyle\OneDrive\Desktop\SkylerTrafficControlSystem\simulation_files\output_simulated_files/fcd.xml"/>
        <summary-output value="C:\Users\skyle\OneDrive\Desktop\SkylerTrafficControlSystem\simulation_files\output_simulated_files/summary.xml"/>
        <tripinfo-output value="tripinfo.xml"/>
    </output>

    <time>
        <begin value="0"/>
        <end value="5000"/>
        <step-length value="0.5"/>
    </time>

    <processing>
        <scale value="1"/>
    </processing>

    <traci_server>
        <remote-port value="63512"/>
    </traci_server>

    <gui_only>
        <delay value="1000"/>
    </gui_only>

</sumoConfiguration>
-->

<tripinfos xmlns:xsi="http://www.w3.org/2001/XMLSchema-instance" xsi:noNamespaceSchemaLocation="http://sumo.dlr.de/xsd/tripinfo_file.xsd">
</tripinfos>
